256
This is the position of the system during the last 1000 steps
LJ 0. 0. 0
LJ 0.         0.77352941 0.7735294
LJ 0.77352941 0.         0.7735294
LJ 0.77352941 0.77352941 0.       
LJ 0.         0.         1.5470588
LJ 0.         0.77352941 2.3205882
LJ 0.77352941 0.         2.3205882
LJ 0.77352941 0.77352941 1.5470588
LJ 0.         0.         3.0941176
LJ 0.         0.77352941 3.8676470
LJ 0.77352941 0.         3.8676470
LJ 0.77352941 0.77352941 3.0941176
LJ 0.         0.         4.6411764
LJ 0.         0.77352941 5.4147058
LJ 0.77352941 0.         5.4147058
LJ 0.77352941 0.77352941 4.6411764
LJ 0.         1.54705882 0.       
LJ 0.         2.32058824 0.7735294
LJ 0.77352941 1.54705882 0.7735294
LJ 0.77352941 2.32058824 0.       
LJ 0.         1.54705882 1.5470588
LJ 0.         2.32058824 2.3205882
LJ 0.77352941 1.54705882 2.3205882
LJ 0.77352941 2.32058824 1.5470588
LJ 0.         1.54705882 3.0941176
LJ 0.         2.32058824 3.8676470
LJ 0.77352941 1.54705882 3.8676470
LJ 0.77352941 2.32058824 3.0941176
LJ 0.         1.54705882 4.6411764
LJ 0.         2.32058824 5.4147058
LJ 0.77352941 1.54705882 5.4147058
LJ 0.77352941 2.32058824 4.6411764
LJ 0.         3.09411765 0.       
LJ 0.         3.86764706 0.7735294
LJ 0.77352941 3.09411765 0.7735294
LJ 0.77352941 3.86764706 0.       
LJ 0.         3.09411765 1.5470588
LJ 0.         3.86764706 2.3205882
LJ 0.77352941 3.09411765 2.3205882
LJ 0.77352941 3.86764706 1.5470588
LJ 0.         3.09411765 3.0941176
LJ 0.         3.86764706 3.8676470
LJ 0.77352941 3.09411765 3.8676470
LJ 0.77352941 3.86764706 3.0941176
LJ 0.         3.09411765 4.6411764
LJ 0.         3.86764706 5.4147058
LJ 0.77352941 3.09411765 5.4147058
LJ 0.77352941 3.86764706 4.6411764
LJ 0.         4.64117647 0.       
LJ 0.         5.41470588 0.7735294
LJ 0.77352941 4.64117647 0.7735294
LJ 0.77352941 5.41470588 0.       
LJ 0.         4.64117647 1.5470588
LJ 0.         5.41470588 2.3205882
LJ 0.77352941 4.64117647 2.3205882
LJ 0.77352941 5.41470588 1.5470588
LJ 0.         4.64117647 3.0941176
LJ 0.         5.41470588 3.8676470
LJ 0.77352941 4.64117647 3.8676470
LJ 0.77352941 5.41470588 3.0941176
LJ 0.         4.64117647 4.6411764
LJ 0.         5.41470588 5.4147058
LJ 0.77352941 4.64117647 5.4147058
LJ 0.77352941 5.41470588 4.6411764
LJ 1.54705882 0.         0.       
LJ 1.54705882 0.77352941 0.7735294
LJ 2.32058824 0.         0.7735294
LJ 2.32058824 0.77352941 0.       
LJ 1.54705882 0.         1.5470588
LJ 1.54705882 0.77352941 2.3205882
LJ 2.32058824 0.         2.3205882
LJ 2.32058824 0.77352941 1.5470588
LJ 1.54705882 0.         3.0941176
LJ 1.54705882 0.77352941 3.8676470
LJ 2.32058824 0.         3.8676470
LJ 2.32058824 0.77352941 3.0941176
LJ 1.54705882 0.         4.6411764
LJ 1.54705882 0.77352941 5.4147058
LJ 2.32058824 0.         5.4147058
LJ 2.32058824 0.77352941 4.6411764
LJ 1.54705882 1.54705882 0.       
LJ 1.54705882 2.32058824 0.7735294
LJ 2.32058824 1.54705882 0.7735294
LJ 2.32058824 2.32058824 0.       
LJ 1.54705882 1.54705882 1.5470588
LJ 1.54705882 2.32058824 2.3205882
LJ 2.32058824 1.54705882 2.3205882
LJ 2.32058824 2.32058824 1.5470588
LJ 1.54705882 1.54705882 3.0941176
LJ 1.54705882 2.32058824 3.8676470
LJ 2.32058824 1.54705882 3.8676470
LJ 2.32058824 2.32058824 3.0941176
LJ 1.54705882 1.54705882 4.6411764
LJ 1.54705882 2.32058824 5.4147058
LJ 2.32058824 1.54705882 5.4147058
LJ 2.32058824 2.32058824 4.6411764
LJ 1.54705882 3.09411765 0.       
LJ 1.54705882 3.86764706 0.7735294
LJ 2.32058824 3.09411765 0.7735294
LJ 2.32058824 3.86764706 0.       
LJ 1.54705882 3.09411765 1.5470588
LJ 1.54705882 3.86764706 2.3205882
LJ 2.32058824 3.09411765 2.3205882
LJ 2.32058824 3.86764706 1.5470588
LJ 1.54705882 3.09411765 3.0941176
LJ 1.54705882 3.86764706 3.8676470
LJ 2.32058824 3.09411765 3.8676470
LJ 2.32058824 3.86764706 3.0941176
LJ 1.54705882 3.09411765 4.6411764
LJ 1.54705882 3.86764706 5.4147058
LJ 2.32058824 3.09411765 5.4147058
LJ 2.32058824 3.86764706 4.6411764
LJ 1.54705882 4.64117647 0.       
LJ 1.54705882 5.41470588 0.7735294
LJ 2.32058824 4.64117647 0.7735294
LJ 2.32058824 5.41470588 0.       
LJ 1.54705882 4.64117647 1.5470588
LJ 1.54705882 5.41470588 2.3205882
LJ 2.32058824 4.64117647 2.3205882
LJ 2.32058824 5.41470588 1.5470588
LJ 1.54705882 4.64117647 3.0941176
LJ 1.54705882 5.41470588 3.8676470
LJ 2.32058824 4.64117647 3.8676470
LJ 2.32058824 5.41470588 3.0941176
LJ 1.54705882 4.64117647 4.6411764
LJ 1.54705882 5.41470588 5.4147058
LJ 2.32058824 4.64117647 5.4147058
LJ 2.32058824 5.41470588 4.6411764
LJ 3.09411765 0.         0.       
LJ 3.09411765 0.77352941 0.7735294
LJ 3.86764706 0.         0.7735294
LJ 3.86764706 0.77352941 0.       
LJ 3.09411765 0.         1.5470588
LJ 3.09411765 0.77352941 2.3205882
LJ 3.86764706 0.         2.3205882
LJ 3.86764706 0.77352941 1.5470588
LJ 3.09411765 0.         3.0941176
LJ 3.09411765 0.77352941 3.8676470
LJ 3.86764706 0.         3.8676470
LJ 3.86764706 0.77352941 3.0941176
LJ 3.09411765 0.         4.6411764
LJ 3.09411765 0.77352941 5.4147058
LJ 3.86764706 0.         5.4147058
LJ 3.86764706 0.77352941 4.6411764
LJ 3.09411765 1.54705882 0.       
LJ 3.09411765 2.32058824 0.7735294
LJ 3.86764706 1.54705882 0.7735294
LJ 3.86764706 2.32058824 0.       
LJ 3.09411765 1.54705882 1.5470588
LJ 3.09411765 2.32058824 2.3205882
LJ 3.86764706 1.54705882 2.3205882
LJ 3.86764706 2.32058824 1.5470588
LJ 3.09411765 1.54705882 3.0941176
LJ 3.09411765 2.32058824 3.8676470
LJ 3.86764706 1.54705882 3.8676470
LJ 3.86764706 2.32058824 3.0941176
LJ 3.09411765 1.54705882 4.6411764
LJ 3.09411765 2.32058824 5.4147058
LJ 3.86764706 1.54705882 5.4147058
LJ 3.86764706 2.32058824 4.6411764
LJ 3.09411765 3.09411765 0.       
LJ 3.09411765 3.86764706 0.7735294
LJ 3.86764706 3.09411765 0.7735294
LJ 3.86764706 3.86764706 0.       
LJ 3.09411765 3.09411765 1.5470588
LJ 3.09411765 3.86764706 2.3205882
LJ 3.86764706 3.09411765 2.3205882
LJ 3.86764706 3.86764706 1.5470588
LJ 3.09411765 3.09411765 3.0941176
LJ 3.09411765 3.86764706 3.8676470
LJ 3.86764706 3.09411765 3.8676470
LJ 3.86764706 3.86764706 3.0941176
LJ 3.09411765 3.09411765 4.6411764
LJ 3.09411765 3.86764706 5.4147058
LJ 3.86764706 3.09411765 5.4147058
LJ 3.86764706 3.86764706 4.6411764
LJ 3.09411765 4.64117647 0.       
LJ 3.09411765 5.41470588 0.7735294
LJ 3.86764706 4.64117647 0.7735294
LJ 3.86764706 5.41470588 0.       
LJ 3.09411765 4.64117647 1.5470588
LJ 3.09411765 5.41470588 2.3205882
LJ 3.86764706 4.64117647 2.3205882
LJ 3.86764706 5.41470588 1.5470588
LJ 3.09411765 4.64117647 3.0941176
LJ 3.09411765 5.41470588 3.8676470
LJ 3.86764706 4.64117647 3.8676470
LJ 3.86764706 5.41470588 3.0941176
LJ 3.09411765 4.64117647 4.6411764
LJ 3.09411765 5.41470588 5.4147058
LJ 3.86764706 4.64117647 5.4147058
LJ 3.86764706 5.41470588 4.6411764
LJ 4.64117647 0.         0.       
LJ 4.64117647 0.77352941 0.7735294
LJ 5.41470588 0.         0.7735294
LJ 5.41470588 0.77352941 0.       
LJ 4.64117647 0.         1.5470588
LJ 4.64117647 0.77352941 2.3205882
LJ 5.41470588 0.         2.3205882
LJ 5.41470588 0.77352941 1.5470588
LJ 4.64117647 0.         3.0941176
LJ 4.64117647 0.77352941 3.8676470
LJ 5.41470588 0.         3.8676470
LJ 5.41470588 0.77352941 3.0941176
LJ 4.64117647 0.         4.6411764
LJ 4.64117647 0.77352941 5.4147058
LJ 5.41470588 0.         5.4147058
LJ 5.41470588 0.77352941 4.6411764
LJ 4.64117647 1.54705882 0.       
LJ 4.64117647 2.32058824 0.7735294
LJ 5.41470588 1.54705882 0.7735294
LJ 5.41470588 2.32058824 0.       
LJ 4.64117647 1.54705882 1.5470588
LJ 4.64117647 2.32058824 2.3205882
LJ 5.41470588 1.54705882 2.3205882
LJ 5.41470588 2.32058824 1.5470588
LJ 4.64117647 1.54705882 3.0941176
LJ 4.64117647 2.32058824 3.8676470
LJ 5.41470588 1.54705882 3.8676470
LJ 5.41470588 2.32058824 3.0941176
LJ 4.64117647 1.54705882 4.6411764
LJ 4.64117647 2.32058824 5.4147058
LJ 5.41470588 1.54705882 5.4147058
LJ 5.41470588 2.32058824 4.6411764
LJ 4.64117647 3.09411765 0.       
LJ 4.64117647 3.86764706 0.7735294
LJ 5.41470588 3.09411765 0.7735294
LJ 5.41470588 3.86764706 0.       
LJ 4.64117647 3.09411765 1.5470588
LJ 4.64117647 3.86764706 2.3205882
LJ 5.41470588 3.09411765 2.3205882
LJ 5.41470588 3.86764706 1.5470588
LJ 4.64117647 3.09411765 3.0941176
LJ 4.64117647 3.86764706 3.8676470
LJ 5.41470588 3.09411765 3.8676470
LJ 5.41470588 3.86764706 3.0941176
LJ 4.64117647 3.09411765 4.6411764
LJ 4.64117647 3.86764706 5.4147058
LJ 5.41470588 3.09411765 5.4147058
LJ 5.41470588 3.86764706 4.6411764
LJ 4.64117647 4.64117647 0.       
LJ 4.64117647 5.41470588 0.7735294
LJ 5.41470588 4.64117647 0.7735294
LJ 5.41470588 5.41470588 0.       
LJ 4.64117647 4.64117647 1.5470588
LJ 4.64117647 5.41470588 2.3205882
LJ 5.41470588 4.64117647 2.3205882
LJ 5.41470588 5.41470588 1.5470588
LJ 4.64117647 4.64117647 3.0941176
LJ 4.64117647 5.41470588 3.8676470
LJ 5.41470588 4.64117647 3.8676470
LJ 5.41470588 5.41470588 3.0941176
LJ 4.64117647 4.64117647 4.6411764
LJ 4.64117647 5.41470588 5.4147058
LJ 5.41470588 4.64117647 5.4147058
LJ 5.41470588 5.41470588 4.6411764
