864
This is the position of the system during the last 1000 steps
LJ 0. 0. 0
LJ 0.         0.77352941 0.7735294
LJ 0.77352941 0.         0.7735294
LJ 0.77352941 0.77352941 0.       
LJ 0.         0.         1.5470588
LJ 0.         0.77352941 2.3205882
LJ 0.77352941 0.         2.3205882
LJ 0.77352941 0.77352941 1.5470588
LJ 0.         0.         3.0941176
LJ 0.         0.77352941 3.8676470
LJ 0.77352941 0.         3.8676470
LJ 0.77352941 0.77352941 3.0941176
LJ 0.         0.         4.6411764
LJ 0.         0.77352941 5.4147058
LJ 0.77352941 0.         5.4147058
LJ 0.77352941 0.77352941 4.6411764
LJ 0.         0.         6.1882352
LJ 0.         0.77352941 6.9617647
LJ 0.77352941 0.         6.9617647
LJ 0.77352941 0.77352941 6.1882352
LJ 0.         0.         7.7352941
LJ 0.         0.77352941 8.5088235
LJ 0.77352941 0.         8.5088235
LJ 0.77352941 0.77352941 7.7352941
LJ 0.         1.54705882 0.       
LJ 0.         2.32058824 0.7735294
LJ 0.77352941 1.54705882 0.7735294
LJ 0.77352941 2.32058824 0.       
LJ 0.         1.54705882 1.5470588
LJ 0.         2.32058824 2.3205882
LJ 0.77352941 1.54705882 2.3205882
LJ 0.77352941 2.32058824 1.5470588
LJ 0.         1.54705882 3.0941176
LJ 0.         2.32058824 3.8676470
LJ 0.77352941 1.54705882 3.8676470
LJ 0.77352941 2.32058824 3.0941176
LJ 0.         1.54705882 4.6411764
LJ 0.         2.32058824 5.4147058
LJ 0.77352941 1.54705882 5.4147058
LJ 0.77352941 2.32058824 4.6411764
LJ 0.         1.54705882 6.1882352
LJ 0.         2.32058824 6.9617647
LJ 0.77352941 1.54705882 6.9617647
LJ 0.77352941 2.32058824 6.1882352
LJ 0.         1.54705882 7.7352941
LJ 0.         2.32058824 8.5088235
LJ 0.77352941 1.54705882 8.5088235
LJ 0.77352941 2.32058824 7.7352941
LJ 0.         3.09411765 0.       
LJ 0.         3.86764706 0.7735294
LJ 0.77352941 3.09411765 0.7735294
LJ 0.77352941 3.86764706 0.       
LJ 0.         3.09411765 1.5470588
LJ 0.         3.86764706 2.3205882
LJ 0.77352941 3.09411765 2.3205882
LJ 0.77352941 3.86764706 1.5470588
LJ 0.         3.09411765 3.0941176
LJ 0.         3.86764706 3.8676470
LJ 0.77352941 3.09411765 3.8676470
LJ 0.77352941 3.86764706 3.0941176
LJ 0.         3.09411765 4.6411764
LJ 0.         3.86764706 5.4147058
LJ 0.77352941 3.09411765 5.4147058
LJ 0.77352941 3.86764706 4.6411764
LJ 0.         3.09411765 6.1882352
LJ 0.         3.86764706 6.9617647
LJ 0.77352941 3.09411765 6.9617647
LJ 0.77352941 3.86764706 6.1882352
LJ 0.         3.09411765 7.7352941
LJ 0.         3.86764706 8.5088235
LJ 0.77352941 3.09411765 8.5088235
LJ 0.77352941 3.86764706 7.7352941
LJ 0.         4.64117647 0.       
LJ 0.         5.41470588 0.7735294
LJ 0.77352941 4.64117647 0.7735294
LJ 0.77352941 5.41470588 0.       
LJ 0.         4.64117647 1.5470588
LJ 0.         5.41470588 2.3205882
LJ 0.77352941 4.64117647 2.3205882
LJ 0.77352941 5.41470588 1.5470588
LJ 0.         4.64117647 3.0941176
LJ 0.         5.41470588 3.8676470
LJ 0.77352941 4.64117647 3.8676470
LJ 0.77352941 5.41470588 3.0941176
LJ 0.         4.64117647 4.6411764
LJ 0.         5.41470588 5.4147058
LJ 0.77352941 4.64117647 5.4147058
LJ 0.77352941 5.41470588 4.6411764
LJ 0.         4.64117647 6.1882352
LJ 0.         5.41470588 6.9617647
LJ 0.77352941 4.64117647 6.9617647
LJ 0.77352941 5.41470588 6.1882352
LJ 0.         4.64117647 7.7352941
LJ 0.         5.41470588 8.5088235
LJ 0.77352941 4.64117647 8.5088235
LJ 0.77352941 5.41470588 7.7352941
LJ 0.         6.18823529 0.       
LJ 0.         6.96176471 0.7735294
LJ 0.77352941 6.18823529 0.7735294
LJ 0.77352941 6.96176471 0.       
LJ 0.         6.18823529 1.5470588
LJ 0.         6.96176471 2.3205882
LJ 0.77352941 6.18823529 2.3205882
LJ 0.77352941 6.96176471 1.5470588
LJ 0.         6.18823529 3.0941176
LJ 0.         6.96176471 3.8676470
LJ 0.77352941 6.18823529 3.8676470
LJ 0.77352941 6.96176471 3.0941176
LJ 0.         6.18823529 4.6411764
LJ 0.         6.96176471 5.4147058
LJ 0.77352941 6.18823529 5.4147058
LJ 0.77352941 6.96176471 4.6411764
LJ 0.         6.18823529 6.1882352
LJ 0.         6.96176471 6.9617647
LJ 0.77352941 6.18823529 6.9617647
LJ 0.77352941 6.96176471 6.1882352
LJ 0.         6.18823529 7.7352941
LJ 0.         6.96176471 8.5088235
LJ 0.77352941 6.18823529 8.5088235
LJ 0.77352941 6.96176471 7.7352941
LJ 0.         7.73529412 0.       
LJ 0.         8.50882353 0.7735294
LJ 0.77352941 7.73529412 0.7735294
LJ 0.77352941 8.50882353 0.       
LJ 0.         7.73529412 1.5470588
LJ 0.         8.50882353 2.3205882
LJ 0.77352941 7.73529412 2.3205882
LJ 0.77352941 8.50882353 1.5470588
LJ 0.         7.73529412 3.0941176
LJ 0.         8.50882353 3.8676470
LJ 0.77352941 7.73529412 3.8676470
LJ 0.77352941 8.50882353 3.0941176
LJ 0.         7.73529412 4.6411764
LJ 0.         8.50882353 5.4147058
LJ 0.77352941 7.73529412 5.4147058
LJ 0.77352941 8.50882353 4.6411764
LJ 0.         7.73529412 6.1882352
LJ 0.         8.50882353 6.9617647
LJ 0.77352941 7.73529412 6.9617647
LJ 0.77352941 8.50882353 6.1882352
LJ 0.         7.73529412 7.7352941
LJ 0.         8.50882353 8.5088235
LJ 0.77352941 7.73529412 8.5088235
LJ 0.77352941 8.50882353 7.7352941
LJ 1.54705882 0.         0.       
LJ 1.54705882 0.77352941 0.7735294
LJ 2.32058824 0.         0.7735294
LJ 2.32058824 0.77352941 0.       
LJ 1.54705882 0.         1.5470588
LJ 1.54705882 0.77352941 2.3205882
LJ 2.32058824 0.         2.3205882
LJ 2.32058824 0.77352941 1.5470588
LJ 1.54705882 0.         3.0941176
LJ 1.54705882 0.77352941 3.8676470
LJ 2.32058824 0.         3.8676470
LJ 2.32058824 0.77352941 3.0941176
LJ 1.54705882 0.         4.6411764
LJ 1.54705882 0.77352941 5.4147058
LJ 2.32058824 0.         5.4147058
LJ 2.32058824 0.77352941 4.6411764
LJ 1.54705882 0.         6.1882352
LJ 1.54705882 0.77352941 6.9617647
LJ 2.32058824 0.         6.9617647
LJ 2.32058824 0.77352941 6.1882352
LJ 1.54705882 0.         7.7352941
LJ 1.54705882 0.77352941 8.5088235
LJ 2.32058824 0.         8.5088235
LJ 2.32058824 0.77352941 7.7352941
LJ 1.54705882 1.54705882 0.       
LJ 1.54705882 2.32058824 0.7735294
LJ 2.32058824 1.54705882 0.7735294
LJ 2.32058824 2.32058824 0.       
LJ 1.54705882 1.54705882 1.5470588
LJ 1.54705882 2.32058824 2.3205882
LJ 2.32058824 1.54705882 2.3205882
LJ 2.32058824 2.32058824 1.5470588
LJ 1.54705882 1.54705882 3.0941176
LJ 1.54705882 2.32058824 3.8676470
LJ 2.32058824 1.54705882 3.8676470
LJ 2.32058824 2.32058824 3.0941176
LJ 1.54705882 1.54705882 4.6411764
LJ 1.54705882 2.32058824 5.4147058
LJ 2.32058824 1.54705882 5.4147058
LJ 2.32058824 2.32058824 4.6411764
LJ 1.54705882 1.54705882 6.1882352
LJ 1.54705882 2.32058824 6.9617647
LJ 2.32058824 1.54705882 6.9617647
LJ 2.32058824 2.32058824 6.1882352
LJ 1.54705882 1.54705882 7.7352941
LJ 1.54705882 2.32058824 8.5088235
LJ 2.32058824 1.54705882 8.5088235
LJ 2.32058824 2.32058824 7.7352941
LJ 1.54705882 3.09411765 0.       
LJ 1.54705882 3.86764706 0.7735294
LJ 2.32058824 3.09411765 0.7735294
LJ 2.32058824 3.86764706 0.       
LJ 1.54705882 3.09411765 1.5470588
LJ 1.54705882 3.86764706 2.3205882
LJ 2.32058824 3.09411765 2.3205882
LJ 2.32058824 3.86764706 1.5470588
LJ 1.54705882 3.09411765 3.0941176
LJ 1.54705882 3.86764706 3.8676470
LJ 2.32058824 3.09411765 3.8676470
LJ 2.32058824 3.86764706 3.0941176
LJ 1.54705882 3.09411765 4.6411764
LJ 1.54705882 3.86764706 5.4147058
LJ 2.32058824 3.09411765 5.4147058
LJ 2.32058824 3.86764706 4.6411764
LJ 1.54705882 3.09411765 6.1882352
LJ 1.54705882 3.86764706 6.9617647
LJ 2.32058824 3.09411765 6.9617647
LJ 2.32058824 3.86764706 6.1882352
LJ 1.54705882 3.09411765 7.7352941
LJ 1.54705882 3.86764706 8.5088235
LJ 2.32058824 3.09411765 8.5088235
LJ 2.32058824 3.86764706 7.7352941
LJ 1.54705882 4.64117647 0.       
LJ 1.54705882 5.41470588 0.7735294
LJ 2.32058824 4.64117647 0.7735294
LJ 2.32058824 5.41470588 0.       
LJ 1.54705882 4.64117647 1.5470588
LJ 1.54705882 5.41470588 2.3205882
LJ 2.32058824 4.64117647 2.3205882
LJ 2.32058824 5.41470588 1.5470588
LJ 1.54705882 4.64117647 3.0941176
LJ 1.54705882 5.41470588 3.8676470
LJ 2.32058824 4.64117647 3.8676470
LJ 2.32058824 5.41470588 3.0941176
LJ 1.54705882 4.64117647 4.6411764
LJ 1.54705882 5.41470588 5.4147058
LJ 2.32058824 4.64117647 5.4147058
LJ 2.32058824 5.41470588 4.6411764
LJ 1.54705882 4.64117647 6.1882352
LJ 1.54705882 5.41470588 6.9617647
LJ 2.32058824 4.64117647 6.9617647
LJ 2.32058824 5.41470588 6.1882352
LJ 1.54705882 4.64117647 7.7352941
LJ 1.54705882 5.41470588 8.5088235
LJ 2.32058824 4.64117647 8.5088235
LJ 2.32058824 5.41470588 7.7352941
LJ 1.54705882 6.18823529 0.       
LJ 1.54705882 6.96176471 0.7735294
LJ 2.32058824 6.18823529 0.7735294
LJ 2.32058824 6.96176471 0.       
LJ 1.54705882 6.18823529 1.5470588
LJ 1.54705882 6.96176471 2.3205882
LJ 2.32058824 6.18823529 2.3205882
LJ 2.32058824 6.96176471 1.5470588
LJ 1.54705882 6.18823529 3.0941176
LJ 1.54705882 6.96176471 3.8676470
LJ 2.32058824 6.18823529 3.8676470
LJ 2.32058824 6.96176471 3.0941176
LJ 1.54705882 6.18823529 4.6411764
LJ 1.54705882 6.96176471 5.4147058
LJ 2.32058824 6.18823529 5.4147058
LJ 2.32058824 6.96176471 4.6411764
LJ 1.54705882 6.18823529 6.1882352
LJ 1.54705882 6.96176471 6.9617647
LJ 2.32058824 6.18823529 6.9617647
LJ 2.32058824 6.96176471 6.1882352
LJ 1.54705882 6.18823529 7.7352941
LJ 1.54705882 6.96176471 8.5088235
LJ 2.32058824 6.18823529 8.5088235
LJ 2.32058824 6.96176471 7.7352941
LJ 1.54705882 7.73529412 0.       
LJ 1.54705882 8.50882353 0.7735294
LJ 2.32058824 7.73529412 0.7735294
LJ 2.32058824 8.50882353 0.       
LJ 1.54705882 7.73529412 1.5470588
LJ 1.54705882 8.50882353 2.3205882
LJ 2.32058824 7.73529412 2.3205882
LJ 2.32058824 8.50882353 1.5470588
LJ 1.54705882 7.73529412 3.0941176
LJ 1.54705882 8.50882353 3.8676470
LJ 2.32058824 7.73529412 3.8676470
LJ 2.32058824 8.50882353 3.0941176
LJ 1.54705882 7.73529412 4.6411764
LJ 1.54705882 8.50882353 5.4147058
LJ 2.32058824 7.73529412 5.4147058
LJ 2.32058824 8.50882353 4.6411764
LJ 1.54705882 7.73529412 6.1882352
LJ 1.54705882 8.50882353 6.9617647
LJ 2.32058824 7.73529412 6.9617647
LJ 2.32058824 8.50882353 6.1882352
LJ 1.54705882 7.73529412 7.7352941
LJ 1.54705882 8.50882353 8.5088235
LJ 2.32058824 7.73529412 8.5088235
LJ 2.32058824 8.50882353 7.7352941
LJ 3.09411765 0.         0.       
LJ 3.09411765 0.77352941 0.7735294
LJ 3.86764706 0.         0.7735294
LJ 3.86764706 0.77352941 0.       
LJ 3.09411765 0.         1.5470588
LJ 3.09411765 0.77352941 2.3205882
LJ 3.86764706 0.         2.3205882
LJ 3.86764706 0.77352941 1.5470588
LJ 3.09411765 0.         3.0941176
LJ 3.09411765 0.77352941 3.8676470
LJ 3.86764706 0.         3.8676470
LJ 3.86764706 0.77352941 3.0941176
LJ 3.09411765 0.         4.6411764
LJ 3.09411765 0.77352941 5.4147058
LJ 3.86764706 0.         5.4147058
LJ 3.86764706 0.77352941 4.6411764
LJ 3.09411765 0.         6.1882352
LJ 3.09411765 0.77352941 6.9617647
LJ 3.86764706 0.         6.9617647
LJ 3.86764706 0.77352941 6.1882352
LJ 3.09411765 0.         7.7352941
LJ 3.09411765 0.77352941 8.5088235
LJ 3.86764706 0.         8.5088235
LJ 3.86764706 0.77352941 7.7352941
LJ 3.09411765 1.54705882 0.       
LJ 3.09411765 2.32058824 0.7735294
LJ 3.86764706 1.54705882 0.7735294
LJ 3.86764706 2.32058824 0.       
LJ 3.09411765 1.54705882 1.5470588
LJ 3.09411765 2.32058824 2.3205882
LJ 3.86764706 1.54705882 2.3205882
LJ 3.86764706 2.32058824 1.5470588
LJ 3.09411765 1.54705882 3.0941176
LJ 3.09411765 2.32058824 3.8676470
LJ 3.86764706 1.54705882 3.8676470
LJ 3.86764706 2.32058824 3.0941176
LJ 3.09411765 1.54705882 4.6411764
LJ 3.09411765 2.32058824 5.4147058
LJ 3.86764706 1.54705882 5.4147058
LJ 3.86764706 2.32058824 4.6411764
LJ 3.09411765 1.54705882 6.1882352
LJ 3.09411765 2.32058824 6.9617647
LJ 3.86764706 1.54705882 6.9617647
LJ 3.86764706 2.32058824 6.1882352
LJ 3.09411765 1.54705882 7.7352941
LJ 3.09411765 2.32058824 8.5088235
LJ 3.86764706 1.54705882 8.5088235
LJ 3.86764706 2.32058824 7.7352941
LJ 3.09411765 3.09411765 0.       
LJ 3.09411765 3.86764706 0.7735294
LJ 3.86764706 3.09411765 0.7735294
LJ 3.86764706 3.86764706 0.       
LJ 3.09411765 3.09411765 1.5470588
LJ 3.09411765 3.86764706 2.3205882
LJ 3.86764706 3.09411765 2.3205882
LJ 3.86764706 3.86764706 1.5470588
LJ 3.09411765 3.09411765 3.0941176
LJ 3.09411765 3.86764706 3.8676470
LJ 3.86764706 3.09411765 3.8676470
LJ 3.86764706 3.86764706 3.0941176
LJ 3.09411765 3.09411765 4.6411764
LJ 3.09411765 3.86764706 5.4147058
LJ 3.86764706 3.09411765 5.4147058
LJ 3.86764706 3.86764706 4.6411764
LJ 3.09411765 3.09411765 6.1882352
LJ 3.09411765 3.86764706 6.9617647
LJ 3.86764706 3.09411765 6.9617647
LJ 3.86764706 3.86764706 6.1882352
LJ 3.09411765 3.09411765 7.7352941
LJ 3.09411765 3.86764706 8.5088235
LJ 3.86764706 3.09411765 8.5088235
LJ 3.86764706 3.86764706 7.7352941
LJ 3.09411765 4.64117647 0.       
LJ 3.09411765 5.41470588 0.7735294
LJ 3.86764706 4.64117647 0.7735294
LJ 3.86764706 5.41470588 0.       
LJ 3.09411765 4.64117647 1.5470588
LJ 3.09411765 5.41470588 2.3205882
LJ 3.86764706 4.64117647 2.3205882
LJ 3.86764706 5.41470588 1.5470588
LJ 3.09411765 4.64117647 3.0941176
LJ 3.09411765 5.41470588 3.8676470
LJ 3.86764706 4.64117647 3.8676470
LJ 3.86764706 5.41470588 3.0941176
LJ 3.09411765 4.64117647 4.6411764
LJ 3.09411765 5.41470588 5.4147058
LJ 3.86764706 4.64117647 5.4147058
LJ 3.86764706 5.41470588 4.6411764
LJ 3.09411765 4.64117647 6.1882352
LJ 3.09411765 5.41470588 6.9617647
LJ 3.86764706 4.64117647 6.9617647
LJ 3.86764706 5.41470588 6.1882352
LJ 3.09411765 4.64117647 7.7352941
LJ 3.09411765 5.41470588 8.5088235
LJ 3.86764706 4.64117647 8.5088235
LJ 3.86764706 5.41470588 7.7352941
LJ 3.09411765 6.18823529 0.       
LJ 3.09411765 6.96176471 0.7735294
LJ 3.86764706 6.18823529 0.7735294
LJ 3.86764706 6.96176471 0.       
LJ 3.09411765 6.18823529 1.5470588
LJ 3.09411765 6.96176471 2.3205882
LJ 3.86764706 6.18823529 2.3205882
LJ 3.86764706 6.96176471 1.5470588
LJ 3.09411765 6.18823529 3.0941176
LJ 3.09411765 6.96176471 3.8676470
LJ 3.86764706 6.18823529 3.8676470
LJ 3.86764706 6.96176471 3.0941176
LJ 3.09411765 6.18823529 4.6411764
LJ 3.09411765 6.96176471 5.4147058
LJ 3.86764706 6.18823529 5.4147058
LJ 3.86764706 6.96176471 4.6411764
LJ 3.09411765 6.18823529 6.1882352
LJ 3.09411765 6.96176471 6.9617647
LJ 3.86764706 6.18823529 6.9617647
LJ 3.86764706 6.96176471 6.1882352
LJ 3.09411765 6.18823529 7.7352941
LJ 3.09411765 6.96176471 8.5088235
LJ 3.86764706 6.18823529 8.5088235
LJ 3.86764706 6.96176471 7.7352941
LJ 3.09411765 7.73529412 0.       
LJ 3.09411765 8.50882353 0.7735294
LJ 3.86764706 7.73529412 0.7735294
LJ 3.86764706 8.50882353 0.       
LJ 3.09411765 7.73529412 1.5470588
LJ 3.09411765 8.50882353 2.3205882
LJ 3.86764706 7.73529412 2.3205882
LJ 3.86764706 8.50882353 1.5470588
LJ 3.09411765 7.73529412 3.0941176
LJ 3.09411765 8.50882353 3.8676470
LJ 3.86764706 7.73529412 3.8676470
LJ 3.86764706 8.50882353 3.0941176
LJ 3.09411765 7.73529412 4.6411764
LJ 3.09411765 8.50882353 5.4147058
LJ 3.86764706 7.73529412 5.4147058
LJ 3.86764706 8.50882353 4.6411764
LJ 3.09411765 7.73529412 6.1882352
LJ 3.09411765 8.50882353 6.9617647
LJ 3.86764706 7.73529412 6.9617647
LJ 3.86764706 8.50882353 6.1882352
LJ 3.09411765 7.73529412 7.7352941
LJ 3.09411765 8.50882353 8.5088235
LJ 3.86764706 7.73529412 8.5088235
LJ 3.86764706 8.50882353 7.7352941
LJ 4.64117647 0.         0.       
LJ 4.64117647 0.77352941 0.7735294
LJ 5.41470588 0.         0.7735294
LJ 5.41470588 0.77352941 0.       
LJ 4.64117647 0.         1.5470588
LJ 4.64117647 0.77352941 2.3205882
LJ 5.41470588 0.         2.3205882
LJ 5.41470588 0.77352941 1.5470588
LJ 4.64117647 0.         3.0941176
LJ 4.64117647 0.77352941 3.8676470
LJ 5.41470588 0.         3.8676470
LJ 5.41470588 0.77352941 3.0941176
LJ 4.64117647 0.         4.6411764
LJ 4.64117647 0.77352941 5.4147058
LJ 5.41470588 0.         5.4147058
LJ 5.41470588 0.77352941 4.6411764
LJ 4.64117647 0.         6.1882352
LJ 4.64117647 0.77352941 6.9617647
LJ 5.41470588 0.         6.9617647
LJ 5.41470588 0.77352941 6.1882352
LJ 4.64117647 0.         7.7352941
LJ 4.64117647 0.77352941 8.5088235
LJ 5.41470588 0.         8.5088235
LJ 5.41470588 0.77352941 7.7352941
LJ 4.64117647 1.54705882 0.       
LJ 4.64117647 2.32058824 0.7735294
LJ 5.41470588 1.54705882 0.7735294
LJ 5.41470588 2.32058824 0.       
LJ 4.64117647 1.54705882 1.5470588
LJ 4.64117647 2.32058824 2.3205882
LJ 5.41470588 1.54705882 2.3205882
LJ 5.41470588 2.32058824 1.5470588
LJ 4.64117647 1.54705882 3.0941176
LJ 4.64117647 2.32058824 3.8676470
LJ 5.41470588 1.54705882 3.8676470
LJ 5.41470588 2.32058824 3.0941176
LJ 4.64117647 1.54705882 4.6411764
LJ 4.64117647 2.32058824 5.4147058
LJ 5.41470588 1.54705882 5.4147058
LJ 5.41470588 2.32058824 4.6411764
LJ 4.64117647 1.54705882 6.1882352
LJ 4.64117647 2.32058824 6.9617647
LJ 5.41470588 1.54705882 6.9617647
LJ 5.41470588 2.32058824 6.1882352
LJ 4.64117647 1.54705882 7.7352941
LJ 4.64117647 2.32058824 8.5088235
LJ 5.41470588 1.54705882 8.5088235
LJ 5.41470588 2.32058824 7.7352941
LJ 4.64117647 3.09411765 0.       
LJ 4.64117647 3.86764706 0.7735294
LJ 5.41470588 3.09411765 0.7735294
LJ 5.41470588 3.86764706 0.       
LJ 4.64117647 3.09411765 1.5470588
LJ 4.64117647 3.86764706 2.3205882
LJ 5.41470588 3.09411765 2.3205882
LJ 5.41470588 3.86764706 1.5470588
LJ 4.64117647 3.09411765 3.0941176
LJ 4.64117647 3.86764706 3.8676470
LJ 5.41470588 3.09411765 3.8676470
LJ 5.41470588 3.86764706 3.0941176
LJ 4.64117647 3.09411765 4.6411764
LJ 4.64117647 3.86764706 5.4147058
LJ 5.41470588 3.09411765 5.4147058
LJ 5.41470588 3.86764706 4.6411764
LJ 4.64117647 3.09411765 6.1882352
LJ 4.64117647 3.86764706 6.9617647
LJ 5.41470588 3.09411765 6.9617647
LJ 5.41470588 3.86764706 6.1882352
LJ 4.64117647 3.09411765 7.7352941
LJ 4.64117647 3.86764706 8.5088235
LJ 5.41470588 3.09411765 8.5088235
LJ 5.41470588 3.86764706 7.7352941
LJ 4.64117647 4.64117647 0.       
LJ 4.64117647 5.41470588 0.7735294
LJ 5.41470588 4.64117647 0.7735294
LJ 5.41470588 5.41470588 0.       
LJ 4.64117647 4.64117647 1.5470588
LJ 4.64117647 5.41470588 2.3205882
LJ 5.41470588 4.64117647 2.3205882
LJ 5.41470588 5.41470588 1.5470588
LJ 4.64117647 4.64117647 3.0941176
LJ 4.64117647 5.41470588 3.8676470
LJ 5.41470588 4.64117647 3.8676470
LJ 5.41470588 5.41470588 3.0941176
LJ 4.64117647 4.64117647 4.6411764
LJ 4.64117647 5.41470588 5.4147058
LJ 5.41470588 4.64117647 5.4147058
LJ 5.41470588 5.41470588 4.6411764
LJ 4.64117647 4.64117647 6.1882352
LJ 4.64117647 5.41470588 6.9617647
LJ 5.41470588 4.64117647 6.9617647
LJ 5.41470588 5.41470588 6.1882352
LJ 4.64117647 4.64117647 7.7352941
LJ 4.64117647 5.41470588 8.5088235
LJ 5.41470588 4.64117647 8.5088235
LJ 5.41470588 5.41470588 7.7352941
LJ 4.64117647 6.18823529 0.       
LJ 4.64117647 6.96176471 0.7735294
LJ 5.41470588 6.18823529 0.7735294
LJ 5.41470588 6.96176471 0.       
LJ 4.64117647 6.18823529 1.5470588
LJ 4.64117647 6.96176471 2.3205882
LJ 5.41470588 6.18823529 2.3205882
LJ 5.41470588 6.96176471 1.5470588
LJ 4.64117647 6.18823529 3.0941176
LJ 4.64117647 6.96176471 3.8676470
LJ 5.41470588 6.18823529 3.8676470
LJ 5.41470588 6.96176471 3.0941176
LJ 4.64117647 6.18823529 4.6411764
LJ 4.64117647 6.96176471 5.4147058
LJ 5.41470588 6.18823529 5.4147058
LJ 5.41470588 6.96176471 4.6411764
LJ 4.64117647 6.18823529 6.1882352
LJ 4.64117647 6.96176471 6.9617647
LJ 5.41470588 6.18823529 6.9617647
LJ 5.41470588 6.96176471 6.1882352
LJ 4.64117647 6.18823529 7.7352941
LJ 4.64117647 6.96176471 8.5088235
LJ 5.41470588 6.18823529 8.5088235
LJ 5.41470588 6.96176471 7.7352941
LJ 4.64117647 7.73529412 0.       
LJ 4.64117647 8.50882353 0.7735294
LJ 5.41470588 7.73529412 0.7735294
LJ 5.41470588 8.50882353 0.       
LJ 4.64117647 7.73529412 1.5470588
LJ 4.64117647 8.50882353 2.3205882
LJ 5.41470588 7.73529412 2.3205882
LJ 5.41470588 8.50882353 1.5470588
LJ 4.64117647 7.73529412 3.0941176
LJ 4.64117647 8.50882353 3.8676470
LJ 5.41470588 7.73529412 3.8676470
LJ 5.41470588 8.50882353 3.0941176
LJ 4.64117647 7.73529412 4.6411764
LJ 4.64117647 8.50882353 5.4147058
LJ 5.41470588 7.73529412 5.4147058
LJ 5.41470588 8.50882353 4.6411764
LJ 4.64117647 7.73529412 6.1882352
LJ 4.64117647 8.50882353 6.9617647
LJ 5.41470588 7.73529412 6.9617647
LJ 5.41470588 8.50882353 6.1882352
LJ 4.64117647 7.73529412 7.7352941
LJ 4.64117647 8.50882353 8.5088235
LJ 5.41470588 7.73529412 8.5088235
LJ 5.41470588 8.50882353 7.7352941
LJ 6.18823529 0.         0.       
LJ 6.18823529 0.77352941 0.7735294
LJ 6.96176471 0.         0.7735294
LJ 6.96176471 0.77352941 0.       
LJ 6.18823529 0.         1.5470588
LJ 6.18823529 0.77352941 2.3205882
LJ 6.96176471 0.         2.3205882
LJ 6.96176471 0.77352941 1.5470588
LJ 6.18823529 0.         3.0941176
LJ 6.18823529 0.77352941 3.8676470
LJ 6.96176471 0.         3.8676470
LJ 6.96176471 0.77352941 3.0941176
LJ 6.18823529 0.         4.6411764
LJ 6.18823529 0.77352941 5.4147058
LJ 6.96176471 0.         5.4147058
LJ 6.96176471 0.77352941 4.6411764
LJ 6.18823529 0.         6.1882352
LJ 6.18823529 0.77352941 6.9617647
LJ 6.96176471 0.         6.9617647
LJ 6.96176471 0.77352941 6.1882352
LJ 6.18823529 0.         7.7352941
LJ 6.18823529 0.77352941 8.5088235
LJ 6.96176471 0.         8.5088235
LJ 6.96176471 0.77352941 7.7352941
LJ 6.18823529 1.54705882 0.       
LJ 6.18823529 2.32058824 0.7735294
LJ 6.96176471 1.54705882 0.7735294
LJ 6.96176471 2.32058824 0.       
LJ 6.18823529 1.54705882 1.5470588
LJ 6.18823529 2.32058824 2.3205882
LJ 6.96176471 1.54705882 2.3205882
LJ 6.96176471 2.32058824 1.5470588
LJ 6.18823529 1.54705882 3.0941176
LJ 6.18823529 2.32058824 3.8676470
LJ 6.96176471 1.54705882 3.8676470
LJ 6.96176471 2.32058824 3.0941176
LJ 6.18823529 1.54705882 4.6411764
LJ 6.18823529 2.32058824 5.4147058
LJ 6.96176471 1.54705882 5.4147058
LJ 6.96176471 2.32058824 4.6411764
LJ 6.18823529 1.54705882 6.1882352
LJ 6.18823529 2.32058824 6.9617647
LJ 6.96176471 1.54705882 6.9617647
LJ 6.96176471 2.32058824 6.1882352
LJ 6.18823529 1.54705882 7.7352941
LJ 6.18823529 2.32058824 8.5088235
LJ 6.96176471 1.54705882 8.5088235
LJ 6.96176471 2.32058824 7.7352941
LJ 6.18823529 3.09411765 0.       
LJ 6.18823529 3.86764706 0.7735294
LJ 6.96176471 3.09411765 0.7735294
LJ 6.96176471 3.86764706 0.       
LJ 6.18823529 3.09411765 1.5470588
LJ 6.18823529 3.86764706 2.3205882
LJ 6.96176471 3.09411765 2.3205882
LJ 6.96176471 3.86764706 1.5470588
LJ 6.18823529 3.09411765 3.0941176
LJ 6.18823529 3.86764706 3.8676470
LJ 6.96176471 3.09411765 3.8676470
LJ 6.96176471 3.86764706 3.0941176
LJ 6.18823529 3.09411765 4.6411764
LJ 6.18823529 3.86764706 5.4147058
LJ 6.96176471 3.09411765 5.4147058
LJ 6.96176471 3.86764706 4.6411764
LJ 6.18823529 3.09411765 6.1882352
LJ 6.18823529 3.86764706 6.9617647
LJ 6.96176471 3.09411765 6.9617647
LJ 6.96176471 3.86764706 6.1882352
LJ 6.18823529 3.09411765 7.7352941
LJ 6.18823529 3.86764706 8.5088235
LJ 6.96176471 3.09411765 8.5088235
LJ 6.96176471 3.86764706 7.7352941
LJ 6.18823529 4.64117647 0.       
LJ 6.18823529 5.41470588 0.7735294
LJ 6.96176471 4.64117647 0.7735294
LJ 6.96176471 5.41470588 0.       
LJ 6.18823529 4.64117647 1.5470588
LJ 6.18823529 5.41470588 2.3205882
LJ 6.96176471 4.64117647 2.3205882
LJ 6.96176471 5.41470588 1.5470588
LJ 6.18823529 4.64117647 3.0941176
LJ 6.18823529 5.41470588 3.8676470
LJ 6.96176471 4.64117647 3.8676470
LJ 6.96176471 5.41470588 3.0941176
LJ 6.18823529 4.64117647 4.6411764
LJ 6.18823529 5.41470588 5.4147058
LJ 6.96176471 4.64117647 5.4147058
LJ 6.96176471 5.41470588 4.6411764
LJ 6.18823529 4.64117647 6.1882352
LJ 6.18823529 5.41470588 6.9617647
LJ 6.96176471 4.64117647 6.9617647
LJ 6.96176471 5.41470588 6.1882352
LJ 6.18823529 4.64117647 7.7352941
LJ 6.18823529 5.41470588 8.5088235
LJ 6.96176471 4.64117647 8.5088235
LJ 6.96176471 5.41470588 7.7352941
LJ 6.18823529 6.18823529 0.       
LJ 6.18823529 6.96176471 0.7735294
LJ 6.96176471 6.18823529 0.7735294
LJ 6.96176471 6.96176471 0.       
LJ 6.18823529 6.18823529 1.5470588
LJ 6.18823529 6.96176471 2.3205882
LJ 6.96176471 6.18823529 2.3205882
LJ 6.96176471 6.96176471 1.5470588
LJ 6.18823529 6.18823529 3.0941176
LJ 6.18823529 6.96176471 3.8676470
LJ 6.96176471 6.18823529 3.8676470
LJ 6.96176471 6.96176471 3.0941176
LJ 6.18823529 6.18823529 4.6411764
LJ 6.18823529 6.96176471 5.4147058
LJ 6.96176471 6.18823529 5.4147058
LJ 6.96176471 6.96176471 4.6411764
LJ 6.18823529 6.18823529 6.1882352
LJ 6.18823529 6.96176471 6.9617647
LJ 6.96176471 6.18823529 6.9617647
LJ 6.96176471 6.96176471 6.1882352
LJ 6.18823529 6.18823529 7.7352941
LJ 6.18823529 6.96176471 8.5088235
LJ 6.96176471 6.18823529 8.5088235
LJ 6.96176471 6.96176471 7.7352941
LJ 6.18823529 7.73529412 0.       
LJ 6.18823529 8.50882353 0.7735294
LJ 6.96176471 7.73529412 0.7735294
LJ 6.96176471 8.50882353 0.       
LJ 6.18823529 7.73529412 1.5470588
LJ 6.18823529 8.50882353 2.3205882
LJ 6.96176471 7.73529412 2.3205882
LJ 6.96176471 8.50882353 1.5470588
LJ 6.18823529 7.73529412 3.0941176
LJ 6.18823529 8.50882353 3.8676470
LJ 6.96176471 7.73529412 3.8676470
LJ 6.96176471 8.50882353 3.0941176
LJ 6.18823529 7.73529412 4.6411764
LJ 6.18823529 8.50882353 5.4147058
LJ 6.96176471 7.73529412 5.4147058
LJ 6.96176471 8.50882353 4.6411764
LJ 6.18823529 7.73529412 6.1882352
LJ 6.18823529 8.50882353 6.9617647
LJ 6.96176471 7.73529412 6.9617647
LJ 6.96176471 8.50882353 6.1882352
LJ 6.18823529 7.73529412 7.7352941
LJ 6.18823529 8.50882353 8.5088235
LJ 6.96176471 7.73529412 8.5088235
LJ 6.96176471 8.50882353 7.7352941
LJ 7.73529412 0.         0.       
LJ 7.73529412 0.77352941 0.7735294
LJ 8.50882353 0.         0.7735294
LJ 8.50882353 0.77352941 0.       
LJ 7.73529412 0.         1.5470588
LJ 7.73529412 0.77352941 2.3205882
LJ 8.50882353 0.         2.3205882
LJ 8.50882353 0.77352941 1.5470588
LJ 7.73529412 0.         3.0941176
LJ 7.73529412 0.77352941 3.8676470
LJ 8.50882353 0.         3.8676470
LJ 8.50882353 0.77352941 3.0941176
LJ 7.73529412 0.         4.6411764
LJ 7.73529412 0.77352941 5.4147058
LJ 8.50882353 0.         5.4147058
LJ 8.50882353 0.77352941 4.6411764
LJ 7.73529412 0.         6.1882352
LJ 7.73529412 0.77352941 6.9617647
LJ 8.50882353 0.         6.9617647
LJ 8.50882353 0.77352941 6.1882352
LJ 7.73529412 0.         7.7352941
LJ 7.73529412 0.77352941 8.5088235
LJ 8.50882353 0.         8.5088235
LJ 8.50882353 0.77352941 7.7352941
LJ 7.73529412 1.54705882 0.       
LJ 7.73529412 2.32058824 0.7735294
LJ 8.50882353 1.54705882 0.7735294
LJ 8.50882353 2.32058824 0.       
LJ 7.73529412 1.54705882 1.5470588
LJ 7.73529412 2.32058824 2.3205882
LJ 8.50882353 1.54705882 2.3205882
LJ 8.50882353 2.32058824 1.5470588
LJ 7.73529412 1.54705882 3.0941176
LJ 7.73529412 2.32058824 3.8676470
LJ 8.50882353 1.54705882 3.8676470
LJ 8.50882353 2.32058824 3.0941176
LJ 7.73529412 1.54705882 4.6411764
LJ 7.73529412 2.32058824 5.4147058
LJ 8.50882353 1.54705882 5.4147058
LJ 8.50882353 2.32058824 4.6411764
LJ 7.73529412 1.54705882 6.1882352
LJ 7.73529412 2.32058824 6.9617647
LJ 8.50882353 1.54705882 6.9617647
LJ 8.50882353 2.32058824 6.1882352
LJ 7.73529412 1.54705882 7.7352941
LJ 7.73529412 2.32058824 8.5088235
LJ 8.50882353 1.54705882 8.5088235
LJ 8.50882353 2.32058824 7.7352941
LJ 7.73529412 3.09411765 0.       
LJ 7.73529412 3.86764706 0.7735294
LJ 8.50882353 3.09411765 0.7735294
LJ 8.50882353 3.86764706 0.       
LJ 7.73529412 3.09411765 1.5470588
LJ 7.73529412 3.86764706 2.3205882
LJ 8.50882353 3.09411765 2.3205882
LJ 8.50882353 3.86764706 1.5470588
LJ 7.73529412 3.09411765 3.0941176
LJ 7.73529412 3.86764706 3.8676470
LJ 8.50882353 3.09411765 3.8676470
LJ 8.50882353 3.86764706 3.0941176
LJ 7.73529412 3.09411765 4.6411764
LJ 7.73529412 3.86764706 5.4147058
LJ 8.50882353 3.09411765 5.4147058
LJ 8.50882353 3.86764706 4.6411764
LJ 7.73529412 3.09411765 6.1882352
LJ 7.73529412 3.86764706 6.9617647
LJ 8.50882353 3.09411765 6.9617647
LJ 8.50882353 3.86764706 6.1882352
LJ 7.73529412 3.09411765 7.7352941
LJ 7.73529412 3.86764706 8.5088235
LJ 8.50882353 3.09411765 8.5088235
LJ 8.50882353 3.86764706 7.7352941
LJ 7.73529412 4.64117647 0.       
LJ 7.73529412 5.41470588 0.7735294
LJ 8.50882353 4.64117647 0.7735294
LJ 8.50882353 5.41470588 0.       
LJ 7.73529412 4.64117647 1.5470588
LJ 7.73529412 5.41470588 2.3205882
LJ 8.50882353 4.64117647 2.3205882
LJ 8.50882353 5.41470588 1.5470588
LJ 7.73529412 4.64117647 3.0941176
LJ 7.73529412 5.41470588 3.8676470
LJ 8.50882353 4.64117647 3.8676470
LJ 8.50882353 5.41470588 3.0941176
LJ 7.73529412 4.64117647 4.6411764
LJ 7.73529412 5.41470588 5.4147058
LJ 8.50882353 4.64117647 5.4147058
LJ 8.50882353 5.41470588 4.6411764
LJ 7.73529412 4.64117647 6.1882352
LJ 7.73529412 5.41470588 6.9617647
LJ 8.50882353 4.64117647 6.9617647
LJ 8.50882353 5.41470588 6.1882352
LJ 7.73529412 4.64117647 7.7352941
LJ 7.73529412 5.41470588 8.5088235
LJ 8.50882353 4.64117647 8.5088235
LJ 8.50882353 5.41470588 7.7352941
LJ 7.73529412 6.18823529 0.       
LJ 7.73529412 6.96176471 0.7735294
LJ 8.50882353 6.18823529 0.7735294
LJ 8.50882353 6.96176471 0.       
LJ 7.73529412 6.18823529 1.5470588
LJ 7.73529412 6.96176471 2.3205882
LJ 8.50882353 6.18823529 2.3205882
LJ 8.50882353 6.96176471 1.5470588
LJ 7.73529412 6.18823529 3.0941176
LJ 7.73529412 6.96176471 3.8676470
LJ 8.50882353 6.18823529 3.8676470
LJ 8.50882353 6.96176471 3.0941176
LJ 7.73529412 6.18823529 4.6411764
LJ 7.73529412 6.96176471 5.4147058
LJ 8.50882353 6.18823529 5.4147058
LJ 8.50882353 6.96176471 4.6411764
LJ 7.73529412 6.18823529 6.1882352
LJ 7.73529412 6.96176471 6.9617647
LJ 8.50882353 6.18823529 6.9617647
LJ 8.50882353 6.96176471 6.1882352
LJ 7.73529412 6.18823529 7.7352941
LJ 7.73529412 6.96176471 8.5088235
LJ 8.50882353 6.18823529 8.5088235
LJ 8.50882353 6.96176471 7.7352941
LJ 7.73529412 7.73529412 0.       
LJ 7.73529412 8.50882353 0.7735294
LJ 8.50882353 7.73529412 0.7735294
LJ 8.50882353 8.50882353 0.       
LJ 7.73529412 7.73529412 1.5470588
LJ 7.73529412 8.50882353 2.3205882
LJ 8.50882353 7.73529412 2.3205882
LJ 8.50882353 8.50882353 1.5470588
LJ 7.73529412 7.73529412 3.0941176
LJ 7.73529412 8.50882353 3.8676470
LJ 8.50882353 7.73529412 3.8676470
LJ 8.50882353 8.50882353 3.0941176
LJ 7.73529412 7.73529412 4.6411764
LJ 7.73529412 8.50882353 5.4147058
LJ 8.50882353 7.73529412 5.4147058